<PP_INFO>
Generated using APE Version-2.2.0
Author: Unknown Generation date: 2018/04/06
Pseudopotential for: H
Exchange-correlation: Perdew-Zunger LDA
    0        The Pseudo was generated with a Non-Relativistic Calculation
State   n   l    occ     rc         ev
1s      1   0    1.00    1.00     -0.233663
2p      2   1    0.00    1.00      0.000000
3d      3   2    0.00    1.00      0.000000
4f      4   3    0.00    1.00      0.000000
</PP_INFO>
<PP_HEADER>
   0                   Version Number
  H                    Element
   NC                  Norm - Conserving pseudopotential
    F                  Nonlinear Core Correction
 SLA  PZ   NOGX NOGC        Exchange-Correlation functional
    1.00000000000      Z valence
    0.00000000000      Total energy
  0.0000000  0.0000000 Suggested cutoff for wfc and rho
    3                  Max angular momentum component
  200                  Number of points in mesh
    4    4             Number of Wavefunctions, Number of Projectors
 Wavefunctions         nl  l   occ
                       1s  0  1.00
                       2p  1  0.00
                       3d  2  0.00
                       4f  3  0.00
</PP_HEADER>
<PP_MESH>
  <PP_R>
  9.99999974738E-06  1.07782520927E-05  1.16170721108E-05  1.25211734952E-05
  1.34956367836E-05  1.45459379080E-05  1.56779789657E-05  1.68981213865E-05
  1.82132216797E-05  1.96306699642E-05  2.11584314967E-05  2.28050914318E-05
  2.45799030658E-05  2.64928398349E-05  2.85546513605E-05  3.07769238556E-05
  3.31721452333E-05  3.57537752811E-05  3.85363212980E-05  4.15354196166E-05
  4.47679234712E-05  4.82519977027E-05  5.20072208353E-05  5.60546950962E-05
  6.04171649987E-05  6.51191451531E-05  7.01870580249E-05  7.56493824146E-05
  8.15368134917E-05  8.78824352847E-05  9.47219065945E-05  1.02093661376E-04
  1.10039124718E-04  1.18602945623E-04  1.27833247915E-04  1.37781900665E-04
  1.48504809669E-04  1.60062231603E-04  1.72519112631E-04  1.85945453371E-04
  2.00416702255E-04  2.16014179506E-04  2.32825534112E-04  2.50945236366E-04
  2.70475108733E-04  2.91524898037E-04  3.14212892170E-04  3.38666584813E-04
  3.65023391869E-04  3.93431423668E-04  4.24050317259E-04  4.57052133485E-04
  4.92622323864E-04  5.30960772722E-04  5.72282920428E-04  6.16820974053E-04
  6.64825212233E-04  7.16565391603E-04  7.72332262668E-04  8.32439203663E-04
  8.97223981556E-04  9.67050650109E-04  1.04231159566E-03  1.12342974209E-03
  1.21086092745E-03  1.30509646549E-03  1.40666590657E-03  1.51614001342E-03
  1.63413396852E-03  1.76131083109E-03  1.89838526306E-03  2.04612754511E-03
  2.20536790521E-03  2.37700118399E-03  2.56199186328E-03  2.76137948594E-03
  2.97628449748E-03  3.20791454238E-03  3.45757125029E-03  3.72665755054E-03
  4.01668555575E-03  4.32928505905E-03  4.66621269262E-03  5.02936179896E-03
  5.42077307038E-03  5.84264601657E-03  6.29735132457E-03  6.78744418069E-03
  7.31567862925E-03  7.88502304869E-03  8.49867683222E-03  9.16008836658E-03
  9.87297441002E-03  1.06413409784E-02  1.14695058567E-02  1.23621228624E-02
  1.33242079978E-02  1.43611676363E-02  1.54788289039E-02  1.66834724241E-02
  1.79818676110E-02  1.93813107105E-02  2.08896658001E-02  2.25154089813E-02
  2.42676760100E-02  2.61563136347E-02  2.81919349291E-02  3.03859789322E-02
  3.27507749287E-02  3.52996117330E-02  3.80468123643E-02  4.10078145344E-02
  4.41992573987E-02  4.76390750586E-02  5.13465973414E-02  5.53426584227E-02
  5.96497139027E-02  6.42919669940E-02  6.92955045301E-02  7.46884435581E-02
  8.05010893415E-02  8.67661056576E-02  9.35186983501E-02  1.00796813166E-01
  1.08641348988E-01  1.17096387667E-01  1.26209441729E-01  1.36031721380E-01
  1.46618422267E-01  1.58029035655E-01  1.70327682727E-01  1.83583474917E-01
  1.97870902269E-01  2.13270252034E-01  2.29868059836E-01  2.47757595955E-01
  2.67039389453E-01  2.87821793091E-01  3.10221592207E-01  3.34364660986E-01
  3.60386669803E-01  3.88433847610E-01  4.18663803662E-01  4.51246413194E-01
  4.86364772019E-01  5.24216225424E-01  5.65013477142E-01  6.08985784623E-01
  6.56380247333E-01  7.07463195312E-01  7.62521685799E-01  8.21865116329E-01
  8.85826963374E-01  9.54766656292E-01  1.02907159712E+00  1.10915933753E+00
  1.19547992528E+00  1.28851843319E+00  1.38879768499E+00  1.49688119326E+00
  1.61337632613E+00  1.73893772027E+00  1.87427095960E+00  2.02013654029E+00
  2.17735414429E+00  2.34680724550E+00  2.52944807439E+00  2.72630296898E+00
  2.93847814229E+00  3.16716589865E+00  3.41365133373E+00  3.67931955609E+00
  3.96566347068E+00  4.27429216815E+00  4.60693996698E+00  4.96547615943E+00
  5.35191551585E+00  5.76842960657E+00  6.21735900490E+00  6.70122643983E+00
  7.22275097232E+00  7.78486327488E+00  8.39072210033E+00  9.04373203215E+00
  9.74756261634E+00  1.05061689822E+01  1.13238140679E+01  1.22050925758E+01
  1.31549567919E+01  1.41787444153E+01  1.52822085526E+01  1.64715500474E+01
  1.77534523253E+01  1.91351189511E+01  2.06243141088E+01  2.22294062319E+01
  2.39594150290E+01  2.58240621699E+01  2.78338259156E+01  3.00000000000E+01
  </PP_R>
  <PP_RAB>
  7.49453391715E-07  8.07779779167E-07  8.70645431517E-07  9.38403618128E-07
  1.01143510164E-06  1.09015027762E-06  1.17499148079E-06  1.26643547066E-06
  1.36499611067E-06  1.47122725580E-06  1.58572586492E-06  1.70913535537E-06
  1.84214921861E-06  1.98551491720E-06  2.14003808520E-06  2.30658705529E-06
  2.48609773836E-06  2.67957888280E-06  2.88811774306E-06  3.11288618944E-06
  3.35514729331E-06  3.61626242489E-06  3.89769890333E-06  4.20103824227E-06
  4.52798503700E-06  4.88037654334E-06  5.26019300201E-06  5.66956876640E-06
  6.11080429647E-06  6.58637908602E-06  7.09896559603E-06  7.65144427241E-06
  8.24691973244E-06  8.88873821097E-06  9.58050636438E-06  1.03261115379E-05
  1.11297436104E-05  1.19959185390E-05  1.29295037363E-05  1.39357454224E-05
  1.50202981056E-05  1.61892563579E-05  1.74491890626E-05  1.88071763280E-05
  2.02708492736E-05  2.18484329122E-05  2.35487923707E-05  2.53814827061E-05
  2.73568026003E-05  2.94858522324E-05  3.17805956556E-05  3.42539280285E-05
  3.69197480782E-05  3.97930362037E-05  4.28899386571E-05  4.62278582763E-05
  4.98255522793E-05  5.37032376689E-05  5.78827048410E-05  6.23874400342E-05
  6.72427573092E-05  7.24759407994E-05  7.81163980322E-05  8.41958251832E-05
  9.07483851900E-05  9.78108997289E-05  1.05423056132E-04  1.13627630408E-04
  1.22470727616E-04  1.32002040957E-04  1.42275131012E-04  1.53347726730E-04
  1.65282049829E-04  1.78145164445E-04  1.92009353999E-04  2.06952527383E-04
  2.23058656770E-04  2.40418249485E-04  2.59128856609E-04  2.79295621157E-04
  3.01031868926E-04  3.24459745317E-04  3.49710901730E-04  3.76927235361E-04
  4.06261686595E-04  4.37879098433E-04  4.71957142824E-04  5.08687319080E-04
  5.48276029990E-04  5.90945741688E-04  6.36936233790E-04  6.86505946817E-04
  7.39933434483E-04  7.97518929012E-04  8.59586028272E-04  9.26483514210E-04
  9.98587312812E-04  1.07630260659E-03  1.16006611149E-03  1.25034853097E-03
  1.34765720109E-03  1.45253894148E-03  1.56558312812E-03  1.68742500531E-03
  1.81874925542E-03  1.96029384635E-03  2.11285417854E-03  2.27728755466E-03
  2.45451799717E-03  2.64554144078E-03  2.85143132907E-03  3.07334464660E-03
  3.31252842055E-03  3.57032672828E-03  3.84818825027E-03  4.14767441092E-03
  4.47046815286E-03  4.81838339410E-03  5.19337522126E-03  5.59755087606E-03
  6.03318159679E-03  6.50271538137E-03  7.00879074378E-03  7.55425154096E-03
  8.14216295368E-03  8.77582871113E-03  9.45880965601E-03  1.01949437544E-02
  1.09883676632E-02  1.18435399753E-02  1.27652662748E-02  1.37587261415E-02
  1.48295022574E-02  1.59836117776E-02  1.72275401443E-02  1.85682775302E-02
  2.00133581203E-02  2.15709024491E-02  2.32496630336E-02  2.50590735576E-02
  2.70093018836E-02  2.91113071902E-02  3.13769015570E-02  3.38188163411E-02
  3.64507737208E-02  3.92875638061E-02  4.23451277506E-02  4.56406473322E-02
  4.91926415046E-02  5.30210704635E-02  5.71474478115E-02  6.15949614525E-02
  6.63886038944E-02  7.15553126931E-02  7.71241218259E-02  8.31263248464E-02
  8.95956507366E-02  9.65684534440E-02  1.04083916171E-01  1.12184271563E-01
  1.20915039028E-01  1.30325280536E-01  1.40467876315E-01  1.51399822009E-01
  1.63182548962E-01  1.75882269427E-01  1.89570348641E-01  2.04323705856E-01
  2.20225246586E-01  2.37364328483E-01  2.55837263483E-01  2.75747859018E-01
  2.97208001359E-01  3.20338284352E-01  3.45268687090E-01  3.72139304318E-01
  4.01101133685E-01  4.32316924272E-01  4.65962091145E-01  5.02225701086E-01
  5.41311535046E-01  5.83439233279E-01  6.28845529589E-01  6.77785581648E-01
  7.30534404832E-01  7.87388417656E-01  8.48667107473E-01  9.14714825818E-01
  9.85902723462E-01  1.06263083608E+00  1.14533033220E+00  1.23446593617E+00
  1.33053853960E+00  1.43408801611E+00  1.54569625511E+00  1.66599043172E+00
  1.79564653106E+00  1.93539314700E+00  2.08601557638E+00  2.24836023194E+00
  </PP_RAB>
</PP_MESH>
<PP_LOCAL>
 -5.23885076373E+00 -5.23885076359E+00 -5.23885076343E+00 -5.23885076324E+00
 -5.23885076302E+00 -5.23885076277E+00 -5.23885076248E+00 -5.23885076213E+00
 -5.23885076174E+00 -5.23885076127E+00 -5.23885076074E+00 -5.23885076011E+00
 -5.23885075939E+00 -5.23885075854E+00 -5.23885075757E+00 -5.23885075643E+00
 -5.23885075511E+00 -5.23885075358E+00 -5.23885075179E+00 -5.23885074972E+00
 -5.23885074732E+00 -5.23885074452E+00 -5.23885074128E+00 -5.23885073751E+00
 -5.23885073313E+00 -5.23885072804E+00 -5.23885072213E+00 -5.23885071526E+00
 -5.23885070728E+00 -5.23885069802E+00 -5.23885068725E+00 -5.23885067474E+00
 -5.23885066021E+00 -5.23885064333E+00 -5.23885062372E+00 -5.23885060094E+00
 -5.23885057448E+00 -5.23885054374E+00 -5.23885050802E+00 -5.23885046653E+00
 -5.23885041834E+00 -5.23885036234E+00 -5.23885029730E+00 -5.23885022173E+00
 -5.23885013395E+00 -5.23885003197E+00 -5.23884991349E+00 -5.23884977587E+00
 -5.23884961598E+00 -5.23884943024E+00 -5.23884921447E+00 -5.23884896380E+00
 -5.23884867260E+00 -5.23884833431E+00 -5.23884794131E+00 -5.23884748477E+00
 -5.23884695440E+00 -5.23884633826E+00 -5.23884562249E+00 -5.23884479098E+00
 -5.23884382500E+00 -5.23884270282E+00 -5.23884139917E+00 -5.23883988472E+00
 -5.23883812537E+00 -5.23883608152E+00 -5.23883370717E+00 -5.23883094887E+00
 -5.23882774453E+00 -5.23882402204E+00 -5.23881969759E+00 -5.23881467386E+00
 -5.23880883777E+00 -5.23880205795E+00 -5.23879418180E+00 -5.23878503205E+00
 -5.23877440275E+00 -5.23876205466E+00 -5.23874770986E+00 -5.23873104548E+00
 -5.23871168646E+00 -5.23868919710E+00 -5.23866307124E+00 -5.23863272092E+00
 -5.23859746310E+00 -5.23855650433E+00 -5.23850892290E+00 -5.23845364812E+00
 -5.23838943622E+00 -5.23831484244E+00 -5.23822818853E+00 -5.23812752506E+00
 -5.23801058762E+00 -5.23787474602E+00 -5.23771694521E+00 -5.23753363682E+00
 -5.23732069957E+00 -5.23707334694E+00 -5.23678602005E+00 -5.23645226331E+00
 -5.23606458021E+00 -5.23561426602E+00 -5.23509121382E+00 -5.23448368967E+00
 -5.23377807204E+00 -5.23295855003E+00 -5.23200677401E+00 -5.23090145129E+00
 -5.22961787876E+00 -5.22812740267E+00 -5.22639679525E+00 -5.22438753563E+00
 -5.22205498182E+00 -5.21934741832E+00 -5.21620496277E+00 -5.21255831311E+00
 -5.20832731563E+00 -5.20341933267E+00 -5.19772738849E+00 -5.19112807136E+00
 -5.18347917162E+00 -5.17461703781E+00 -5.16435363875E+00 -5.15247332764E+00
 -5.13872931763E+00 -5.12283989772E+00 -5.10448444468E+00 -5.08329932524E+00
 -5.05887383290E+00 -5.03074637185E+00 -4.99840118701E+00 -4.96126604926E+00
 -4.91871144010E+00 -4.87005193991E+00 -4.81455070667E+00 -4.75142812706E+00
 -4.67987591121E+00 -4.59907805412E+00 -4.50824015209E+00 -4.40662847029E+00
 -4.29361981481E+00 -4.16876255635E+00 -4.03184796483E+00 -3.88298924483E+00
 -3.72270327776E+00 -3.55198715855E+00 -3.37237842187E+00 -3.18598482663E+00
 -2.99546724777E+00 -2.80395795473E+00 -2.61489588180E+00 -2.43175817435E+00
 -2.25765798344E+00 -2.09475266739E+00 -1.94349936934E+00 -1.80316743711E+00
 -1.67296828470E+00 -1.55217026662E+00 -1.44009456642E+00 -1.33611138212E+00
 -1.23963638712E+00 -1.15012744659E+00 -1.06708157097E+00 -9.90032089473E-01
 -9.18546027641E-01 -8.52221674293E-01 -7.90686324125E-01 -7.33594183317E-01
 -6.80624426370E-01 -6.31479393249E-01 -5.85882916699E-01 -5.43578770343E-01
 -5.04329228838E-01 -4.67913731987E-01 -4.34127645321E-01 -4.02781110166E-01
 -3.73697976748E-01 -3.46714814327E-01 -3.21679992811E-01 -2.98452830681E-01
 -2.76902804439E-01 -2.56908815143E-01 -2.38358507896E-01 -2.21147640475E-01
 -2.05179497554E-01 -1.90364347212E-01 -1.76618936695E-01 -1.63866024578E-01
 -1.52033946720E-01 -1.41056213542E-01 -1.30871136401E-01 -1.21421480932E-01
 -1.12654145422E-01 -1.04519862412E-01 -9.69729218362E-02 -8.99709141637E-02
 -8.34744920766E-02 -7.74471493617E-02 -7.18550157663E-02 -6.66666666667E-02
</PP_LOCAL>
<PP_NONLOCAL>
  <PP_BETA>
    1    0             Beta    L
   200
 -1.18685853754E-04 -1.27922608396E-04 -1.37878215654E-04 -1.48608620403E-04
 -1.60174121442E-04 -1.72639710337E-04 -1.86075436639E-04 -2.00556801522E-04
 -2.16165182058E-04 -2.32988288506E-04 -2.51120657200E-04 -2.70664181787E-04
 -2.91728685810E-04 -3.14432539856E-04 -3.38903326733E-04 -3.65278558411E-04
 -3.93706448764E-04 -4.24346746446E-04 -4.57371632592E-04 -4.92966688375E-04
 -5.31331937870E-04 -5.72682972079E-04 -6.17252160427E-04 -6.65289956552E-04
 -7.17066305714E-04 -7.72872161734E-04 -8.33021121999E-04 -8.97851189699E-04
 -9.67726673223E-04 -1.04304023337E-03 -1.12421508989E-03 -1.21170739974E-03
 -1.30600882046E-03 -1.40764927300E-03 -1.51719991962E-03 -1.63527637351E-03
 -1.76254215820E-03 -1.89971243625E-03 -2.04755802812E-03 -2.20690974374E-03
 -2.37866305135E-03 -2.56378310952E-03 -2.76331019101E-03 -2.97836552859E-03
 -3.21015761594E-03 -3.45998899891E-03 -3.72926359540E-03 -4.01949458492E-03
 -4.33231291227E-03 -4.66947645304E-03 -5.03287989261E-03 -5.42456537409E-03
 -5.84673397506E-03 -6.30175807781E-03 -6.79219470244E-03 -7.32079987806E-03
 -7.89054413279E-03 -8.50462918978E-03 -9.16650596339E-03 -9.87989395655E-03
 -1.06488021689E-02 -1.14775516336E-02 -1.23707997090E-02 -1.33335662637E-02
 -1.43712619016E-02 -1.54897183867E-02 -1.66952214398E-02 -1.79945460925E-02
 -1.93949947993E-02 -2.09044385230E-02 -2.25313610278E-02 -2.42849066315E-02
 -2.61749316899E-02 -2.82120601066E-02 -3.04077431870E-02 -3.27743241812E-02
 -3.53251078869E-02 -3.80744357168E-02 -4.10377666672E-02 -4.42317646614E-02
 -4.76743927840E-02 -5.13850149636E-02 -5.53845057151E-02 -5.96953686023E-02
 -6.43418641476E-02 -6.93501479786E-02 -7.47484200806E-02 -8.05670861066E-02
 -8.68389317945E-02 -9.35993116486E-02 -1.00886353167E-01 -1.08741178038E-01
 -1.17208141895E-01 -1.26335094401E-01 -1.36173661652E-01 -1.46779553157E-01
 -1.58212895926E-01 -1.70538598548E-01 -1.83826748574E-01 -1.98153046938E-01
 -2.13599283779E-01 -2.30253860598E-01 -2.48212364520E-01 -2.67578201258E-01
 -2.88463294418E-01 -3.10988859929E-01 -3.35286265674E-01 -3.61497987817E-01
 -3.89778676769E-01 -4.20296347221E-01 -4.53233707933E-01 -4.88789647773E-01
 -5.27180894461E-01 -5.68643860893E-01 -6.13436689720E-01 -6.61841498703E-01
 -7.14166814763E-01 -7.70750160517E-01 -8.31960718554E-01 -8.98201939034E-01
 -9.69913865841E-01 -1.04757482229E+00 -1.13170190116E+00 -1.22284942179E+00
 -1.32160411738E+00 -1.42857526037E+00 -1.54437717567E+00 -1.66960058139E+00
 -1.80476788990E+00 -1.95026597679E+00 -2.10624801767E+00 -2.27249395408E+00
 -2.44821734236E+00 -2.63180548066E+00 -2.82048107500E+00 -3.00987938196E+00
 -3.19354790291E+00 -3.36240062991E+00 -3.50420074278E+00 -3.60320930783E+00
 -3.64022430689E+00 -3.59333661870E+00 -3.43982224525E+00 -3.15962030595E+00
 -2.74072663227E+00 -2.18644591643E+00 -1.52366915916E+00 -8.10089582190E-01
 -1.36505020311E-01  3.81914382932E-01  6.33992175746E-01  5.69374010999E-01
  2.79026825359E-01  3.01439245156E-02 -1.54322759041E-06 -1.30215063716E-06
 -1.06710012290E-06 -8.64582590078E-07 -6.87841261755E-07 -5.37486484737E-07
 -4.11774590000E-07 -3.08840241916E-07 -2.26402040943E-07 -1.61929248275E-07
 -1.12783941526E-07 -7.63403376902E-08 -5.01061823554E-08 -3.18149958041E-08
 -1.94929116014E-08 -1.14934165773E-08 -6.50271596651E-09 -3.51947153104E-09
 -1.81625361529E-09 -8.90608096790E-10 -4.13438791095E-10 -1.80992862285E-10
 -7.44127071326E-11 -2.86069731673E-11 -1.02358588741E-11 -3.39200409344E-12
 -1.03557646193E-12 -2.89611706644E-13 -7.37406440185E-14 -1.69829759385E-14
 -3.50362094262E-15 -6.45529629461E-16 -1.03154903765E-16 -1.39806199401E-17
 -1.21155683991E-18 -4.15270128913E-20  1.07468807153E-19  5.41772806811E-20
  1.17302974030E-20  4.56191406963E-21  3.16985582217E-21  1.05807445398E-21
  4.28029669158E-22  1.01514437422E-22  6.42379796395E-24  0.00000000000E+00
  </PP_BETA>
  <PP_BETA>
    2    1             Beta    L
   200
 -5.13352227506E-10 -5.96365000085E-10 -6.92801539212E-10 -8.04832565196E-10
 -9.34979819553E-10 -1.08617282769E-09 -1.26181484053E-09 -1.46585943936E-09
 -1.70289952825E-09 -1.97827071721E-09 -2.29817142317E-09 -2.66980239210E-09
 -3.10152878300E-09 -3.60306846194E-09 -4.18571074473E-09 -4.86257051189E-09
 -5.64888341582E-09 -6.56234882532E-09 -7.62352822669E-09 -8.85630804934E-09
 -1.02884373339E-08 -1.19521523453E-08 -1.38849021906E-08 -1.61301917750E-08
 -1.87385610706E-08 -2.17687227404E-08 -2.52888837259E-08 -2.93782805460E-08
 -3.41289628673E-08 -3.96478654921E-08 -4.60592154069E-08 -5.35073280716E-08
 -6.21598558957E-08 -7.22115620253E-08 -8.38887043901E-08 -9.74541286983E-08
 -1.13213185027E-07 -1.31520601197E-07 -1.52788467658E-07 -1.77495513644E-07
 -2.06197883416E-07 -2.39541655195E-07 -2.78277384634E-07 -3.23277000232E-07
 -3.75553431103E-07 -4.36283409009E-07 -5.06833958060E-07 -5.88793168578E-07
 -6.84005948075E-07 -7.94615554468E-07 -9.23111846920E-07 -1.07238734108E-06
 -1.24580233143E-06 -1.44726054783E-06 -1.68129705092E-06 -1.95318034713E-06
 -2.26903102496E-06 -2.63595958695E-06 -3.06222658561E-06 -3.55742867531E-06
 -4.13271477820E-06 -4.80103724375E-06 -5.57744367379E-06 -6.47941600696E-06
 -7.52726452883E-06 -8.74458572230E-06 -1.01587943256E-05 -1.18017416574E-05
 -1.37104342388E-05 -1.59278690400E-05 -1.85040043551E-05 -2.14968884362E-05
 -2.49739716620E-05 -2.90136322781E-05 -3.37069507322E-05 -3.91597734525E-05
 -4.54951137612E-05 -5.28559456257E-05 -6.14084553805E-05 -7.13458276423E-05
 -8.28926547234E-05 -9.63100743140E-05 -1.11901758519E-04 -1.30020899097E-04
 -1.51078359694E-04 -1.75552196822E-04 -2.03998788580E-04 -2.37065854855E-04
 -2.75507706937E-04 -3.20203130324E-04 -3.72176384825E-04 -4.32621904692E-04
 -5.02933403096E-04 -5.84738236036E-04 -6.79938068697E-04 -7.90757122788E-04
 -9.19799580103E-04 -1.07011809331E-03 -1.24529583312E-03 -1.44954511248E-03
 -1.68782641348E-03 -1.96599265506E-03 -2.29096484953E-03 -2.67094699598E-03
 -3.11569027167E-03 -3.63681946860E-03 -4.24823839285E-03 -4.96663587632E-03
 -5.81212050302E-03 -6.80902059564E-03 -7.98689704636E-03 -9.38183098400E-03
 -1.10380670324E-02 -1.30101172638E-02 -1.53654624051E-02 -1.81880272442E-02
 -2.15826586339E-02 -2.56808993740E-02 -3.06484319631E-02 -3.66946648307E-02
 -4.40850512037E-02 -5.31568659442E-02 -6.43393128758E-02 -7.81789808901E-02
 -9.53717851313E-02 -1.16802572414E-01 -1.43593457587E-01 -1.77161559985E-01
 -2.19285924128E-01 -2.72181732027E-01 -3.38577005967E-01 -4.21782252571E-01
 -5.25736122707E-01 -6.54999225642E-01 -8.14652819005E-01 -1.01003866679E+00
 -1.24625155166E+00 -1.52726997846E+00 -1.85459173073E+00 -2.22524592512E+00
 -2.62911205866E+00 -3.04563702837E+00 -3.44036969449E+00 -3.76230394421E+00
 -3.94388151812E+00 -3.90658480820E+00 -3.57598548018E+00 -2.90994583013E+00
 -1.94036618507E+00 -8.18824247323E-01  1.65180011484E-01  6.58678962431E-01
  4.96133286671E-01  7.02318476686E-02 -1.51807134835E-05 -1.44141919521E-05
 -1.33384096593E-05 -1.22489280777E-05 -1.10898395310E-05 -9.90475092981E-06
 -8.71407213395E-06 -7.54387887493E-06 -6.41854538462E-06 -5.36011218927E-06
 -4.38738933716E-06 -3.51468253850E-06 -2.75125758954E-06 -2.10095993784E-06
 -1.56237589856E-06 -1.12937561965E-06 -7.92042058908E-07 -5.37845923814E-07
 -3.52927412365E-07 -2.23319761282E-07 -1.35975589953E-07 -7.94963178158E-08
 -4.45271095917E-08 -2.38401659863E-08 -1.21725932589E-08 -5.91249409833E-09
 -2.72477372816E-09 -1.18791261363E-09 -4.88358375096E-10 -1.88645780257E-10
 -6.80155034767E-11 -2.28905186753E-11 -7.00503337657E-12 -1.91214583039E-12
 -3.52118759888E-13 -2.71475809518E-14  1.67857083018E-13  2.15539011850E-13
  1.27227418056E-13  1.44998816659E-13  3.18883087945E-13  3.65728045395E-13
  5.55018037160E-13  5.42491711312E-13  1.56487271728E-13  0.00000000000E+00
  </PP_BETA>
  <PP_BETA>
    3    2             Beta    L
   200
  8.60810144589E-14  1.07783534367E-13  1.34957636748E-13  1.68982802640E-13
  2.11586304227E-13  2.64930889028E-13  3.31724570799E-13  4.15358100624E-13
  5.20077096862E-13  6.51197572037E-13  8.15375797811E-13  1.02094620759E-12
  1.27834449026E-12  1.60063735320E-12  2.00418584773E-12  2.50947593044E-12
  3.14215842345E-12  3.93435116669E-12  4.92626946535E-12  6.16826760140E-12
  7.72339504563E-12  9.67059713498E-12  1.21087226961E-11  1.51615420600E-11
  1.89840302056E-11  2.37702339916E-11  2.97631228539E-11  3.72669230341E-11
  4.66625614787E-11  5.84270034119E-11  7.31574652431E-11  9.16017319626E-11
  1.14696118073E-10  1.43612999120E-10  1.79820326728E-10  2.25156148391E-10
  2.81921914963E-10  3.52999312526E-10  4.41996549547E-10  5.53431525439E-10
  6.92961178956E-10  8.67668659072E-10  1.08642289628E-09  1.36032882761E-09
  1.70329113042E-09  2.13272008233E-09  2.67041537915E-09  3.34367277645E-09
  4.18666973162E-09  5.24220038565E-09  6.56384795726E-09  8.21870482555E-09
  1.02907783785E-08  1.28852555144E-08  1.61338422677E-08  2.02014496042E-08
  2.52945647565E-08  3.16717330267E-08  3.96566820982E-08  4.96547550179E-08
  6.21734859339E-08  7.78483629171E-08  9.74750854343E-08  1.22049953611E-07
  1.52820439048E-07  1.91348503564E-07  2.39589878976E-07  2.99993330765E-07
  3.75624942095E-07  4.70323723674E-07  5.88896443435E-07  7.37361558540E-07
  9.23254621240E-07  1.15601064555E-06  1.44744282098E-06  1.81234183936E-06
  2.26922620759E-06  2.84128156037E-06  3.55753654704E-06  4.45433482678E-06
  5.57717766553E-06  6.98303033632E-06  8.74320891633E-06  1.09469933147E-05
  1.37061489083E-05  1.71605848158E-05  2.14854338585E-05  2.68999104275E-05
  3.36783912878E-05  4.21642750850E-05  5.27873143216E-05  6.60852853913E-05
  8.27310760103E-05  1.03566534982E-04  1.29644758845E-04  1.62282898373E-04
  2.03128073039E-04  2.54239605023E-04  3.18191551851E-04  3.98200458652E-04
  4.98284402811E-04  6.23460805780E-04  7.79992184176E-04  9.75691053440E-04
  1.22029763121E-03  1.52594685895E-03  1.90774460122E-03  2.38447669792E-03
  2.97947879381E-03  3.72169942849E-03  4.64699348588E-03  5.79968731505E-03
  7.23445987247E-03  9.01858485193E-03  1.12345750171E-02  1.39832588643E-02
  1.73872968810E-02  2.15951035121E-02  2.67850720646E-02  3.31698897764E-02
  4.10005603819E-02  5.05694960511E-02  6.22116651381E-02  7.63022420527E-02
  9.32484450145E-02  1.13472201012E-01  1.37378875695E-01  1.65305490396E-01
  1.97439600150E-01  2.33697401574E-01  2.73546944647E-01  3.15760153882E-01
  3.58076933897E-01  3.96768110558E-01  4.26094948869E-01  4.37687094352E-01
  4.19906047413E-01  3.57338056272E-01  2.30679595957E-01  1.74469433411E-02
 -3.05850673848E-01 -7.59235138959E-01 -1.35157422907E+00 -2.06910051148E+00
 -2.86069528634E+00 -3.62310042405E+00 -4.19388816351E+00 -4.36662097673E+00
 -3.94846453525E+00 -2.87659555212E+00 -1.37548787310E+00 -4.04150680575E-02
  4.28833920331E-01  9.48329810887E-02 -7.68511020691E-05 -7.96430518721E-05
 -8.05081378944E-05 -8.08376525873E-05 -8.01027185595E-05 -7.83835343265E-05
 -7.56384903514E-05 -7.19065109380E-05 -6.72675755345E-05 -6.18468116338E-05
 -5.58135468724E-05 -4.93701707307E-05 -4.27416336111E-05 -3.61591000985E-05
 -2.98432765183E-05 -2.39873749620E-05 -1.87428469039E-05 -1.42094991465E-05
 -1.04316073247E-05 -7.40040730083E-06 -5.06240100850E-06 -3.33177889530E-06
 -2.10467676669E-06 -1.27290765093E-06 -7.35107808638E-07 -4.04196022648E-07
 -2.10940998186E-07 -1.04119591607E-07 -4.84222012420E-08 -2.11289489174E-08
 -8.58751815799E-09 -3.24947230065E-09 -1.11465442894E-09 -3.39906384908E-10
 -6.96770907840E-11 -5.95834888406E-12  4.07183122562E-11  5.75925215560E-11
  3.73294425232E-11  4.65835571281E-11  1.11892342313E-10  1.39852114142E-10
  2.30852075196E-10  2.45037273340E-10  7.66550653497E-11  0.00000000000E+00
  </PP_BETA>
  <PP_BETA>
    4    3             Beta    L
   200
  2.49738908537E-18  3.37038568527E-18  4.54855021746E-18  6.13855831720E-18
  8.28437555080E-18  1.11802926223E-17  1.50885172155E-17  2.03629153054E-17
  2.74810515706E-17  3.70874299714E-17  5.00518496644E-17  6.75481600277E-17
  9.11605455840E-17  1.23026964277E-16  1.66032726562E-16  2.24071742723E-16
  3.02399092769E-16  4.08106841973E-16  5.50766184248E-16  7.43294055553E-16
  1.00312268387E-15  1.35377797143E-15  1.82700962205E-15  2.46566588366E-15
  3.32757319645E-15  4.49077202523E-15  6.06058294855E-15  8.17914279606E-15
  1.10382742732E-14  1.48968543394E-14  2.01042539397E-14  2.71319714161E-14
  3.66163238088E-14  4.94160614856E-14  6.66901227502E-14  9.00025686344E-14
  1.21464199076E-13  1.63923672956E-13  2.21225436748E-13  2.98557815614E-13
  4.02922784469E-13  5.43769953864E-13  7.33852174178E-13  9.90380227763E-13
  1.33658115921E-12  1.80380134073E-12  2.43434469206E-12  3.28530303760E-12
  4.43372541526E-12  5.98359438473E-12  8.07524099457E-12  1.08980508718E-11
  1.47076118863E-11  1.98488559957E-11  2.67872906070E-11  3.61511472395E-11
  4.87882637495E-11  6.58428503942E-11  8.88590903300E-11  1.19920954780E-10
  1.61840892032E-10  2.18414474510E-10  2.94764060048E-10  3.97802582824E-10
  5.36859465879E-10  7.24525325405E-10  9.77791945887E-10  1.31959073802E-09
  1.78086896822E-09  2.40339173518E-09  3.24352337278E-09  4.37733062689E-09
  5.90746961181E-09  7.97248003126E-09  1.07593280620E-08  1.45203333669E-08
  1.95960125403E-08  2.64459067901E-08  3.56901842918E-08  4.81657827551E-08
  6.50021735371E-08  8.77236040951E-08  1.18387071210E-07  1.59768509784E-07
  2.15614043180E-07  2.90979025043E-07  3.92685540573E-07  5.29939743862E-07
  7.15164853231E-07  9.65125110854E-07  1.30244229200E-06  1.75764178861E-06
  2.37191307939E-06  3.20083382751E-06  4.31939369873E-06  5.82877104950E-06
  7.86547336632E-06  1.06136648250E-05  1.43217905061E-05  1.93249920654E-05
  2.60753281290E-05  3.51825100875E-05  4.74688015532E-05  6.40429894395E-05
  8.64000258083E-05  1.16555208167E-04  1.57224805741E-04  2.12069107813E-04
  2.86019307905E-04  3.85716893125E-04  5.20103869955E-04  7.01214994431E-04
  9.45240181661E-04  1.27394772711E-03  1.71658850836E-03  2.31243999448E-03
  3.11419919015E-03  4.19249861203E-03  5.64190255453E-03  7.58884611761E-03
  1.02021106117E-02  1.37065891808E-02  1.84012869150E-02  2.46827171160E-02
  3.30750882186E-02  4.42688979896E-02  5.91697120914E-02  7.89589115197E-02
  1.05167892375E-01  1.39766337865E-01  1.85263355111E-01  2.44816864765E-01
  3.22340744123E-01  4.22589572711E-01  5.51185700363E-01  7.14530656041E-01
  9.19510478041E-01  1.17286103647E+00  1.48000637915E+00  1.84312917346E+00
  2.25820096649E+00  2.71074315695E+00  3.17030816055E+00  3.58423973099E+00
  3.87245775930E+00  3.92713062199E+00  3.62428467662E+00  2.85793012105E+00
  1.60792342104E+00  4.16514941619E-02 -1.39170775809E+00 -2.01130178054E+00
 -1.36446828054E+00 -1.96575723315E-01 -7.56063243814E-05 -8.49155090675E-05
 -9.30574221560E-05 -1.01331335297E-04 -1.08930294214E-04 -1.15679405153E-04
 -1.21190430872E-04 -1.25129188810E-04 -1.27185629581E-04 -1.27108497938E-04
 -1.24741540319E-04 -1.20045291313E-04 -1.13120220902E-04 -1.04212173020E-04
 -9.37051909781E-05 -8.20955350062E-05 -6.99504430764E-05 -5.78549605636E-05
 -4.63546653983E-05 -3.59029081968E-05 -2.68215670777E-05 -1.92815357043E-05
 -1.33053835357E-05 -8.79025005212E-06 -5.54427282722E-06 -3.32842558964E-06
 -1.89566268554E-06 -1.02052526758E-06 -5.17259580800E-07 -2.45780999001E-07
 -1.08678052324E-07 -4.46956446493E-08 -1.66470142214E-08 -5.50642467998E-09
 -1.22321441759E-09 -1.13254712490E-10  8.37314640435E-10  1.28033704962E-09
  8.96606131705E-10  1.20822843485E-09  3.13253878018E-09  4.22468114050E-09
  7.52259852156E-09  8.61160064532E-09  2.90493015071E-09  0.00000000000E+00
  </PP_BETA>
  <PP_DIJ>
    4                  Number of nonzero Dij
    1    1 -5.53512906992E-01
    2    2 -1.37734499472E-01
    3    3 -3.43928149887E-02
    4    4 -1.03744191147E-01
  </PP_DIJ>
</PP_NONLOCAL>
<PP_PSWFC>
1s    0  1.00          Wavefunction
  1.48535055261E-05  1.60094831062E-05  1.72554249147E-05  1.85983324391E-05
  2.00457520590E-05  2.16058174531E-05  2.32872953051E-05  2.50996345685E-05
  2.70530195634E-05  2.91584272071E-05  3.14276886981E-05  3.38735560009E-05
  3.65097735042E-05  3.93511552574E-05  4.24136682164E-05  4.57145219694E-05
  4.92722654447E-05  5.31068911453E-05  5.72399474953E-05  6.16946599299E-05
  6.64960614092E-05  7.16711330891E-05  7.72489559399E-05  8.32608741653E-05
  8.97406713383E-05  9.67247602462E-05  1.04252387509E-04  1.12365854125E-04
  1.21110753174E-04  1.30536226029E-04  1.40695238500E-04  1.51644878470E-04
  1.63446676701E-04  1.76166952593E-04  1.89877186871E-04  2.04654423256E-04
  2.20581701408E-04  2.37748523564E-04  2.56251357480E-04  2.76194178531E-04
  2.97689053982E-04  3.20856772740E-04  3.45827524119E-04  3.72741629412E-04
  4.01750330419E-04  4.33016639318E-04  4.66716254696E-04  5.03038548849E-04
  5.42187631931E-04  5.84383498902E-04  6.29863265742E-04  6.78882501865E-04
  7.31716666214E-04  7.88662655113E-04  8.50040470570E-04  9.16195018393E-04
  9.87498046226E-04  1.06435023239E-03  1.14718343723E-03  1.23646312968E-03
  1.33269100257E-03  1.43640779144E-03  1.54819631260E-03  1.66868473759E-03